
 Primary working directories    : /tmp/jcartus
 Secondary working directories  : /tmp/jcartus
 Wavefunction directory         : /home/jcartus/wfu/
 Main file repository           : /tmp/jcartus/

 SHA1      : 960ce83de8be0427555cf121dea4debc26c720b5
 NAME      : 2012.1.960ce83
 ARCHNAME  : Linux/x86_64
 FC        : /opt/intel/composer_xe_2013_sp1.2.144/bin/intel64/ifort
 FCVERSION : 14.0.2
 BLASLIB   : -Wl,-_start-group /opt/intel/mkl/lib/intel64/libmkl_intel_ilp64.a /opt/intel/mkl/lib/intel64/libmkl_sequential.a /opt/intel/mkl/lib/intel64/libmkl_core.a -Wl,-_end-group
 id        : tugraziep

 Nodes     nprocs
 qciep        1

 Using customized tuning parameters: mindgm=7; mindgv=24; mindgc=1; mindgr=1; noblas=0; minvec=7
 default implementation of scratch files=df  

 gprint,orbitals
 
                                                                                 !Geometry and Variables
 angstrom
 geometry={
 C
 O   C  r
 }
 r = 1.6
 
 basis=aug-cc-pVQZ
 
                                                                                 ! optimieren auf hf level
 hf
 optg
 
                                                                                 ! Energies in hf and ccsd(t) level
                                                                                 !method: CCSD(T)
                                                                    !httpss://www.molpro.net/info/2015.1/doc/quickstart/node15.html
 hf
 ccsd(t)
 
                                                                                 !get virbational frew of CO in groud state
                                                                                 !(analytical calculation not possible anymore)
                                                                     !https://www.molpro.net/info/2015.1/doc/quickstart/node28.html
 frequencies,symm=auto
 

 Variables initialized (778), CPU time= 0.00 sec
 Commands  initialized (547), CPU time= 0.02 sec, 516 directives.
 Default parameters read. Elapsed time= 0.06 sec

 Checking input...
 Passed
1


                                         ***  PROGRAM SYSTEM MOLPRO  ***
                         Copyright, University College Cardiff Consultants Limited, 2008

                                    Version 2012.1 linked Apr  1 2014 15:33:03


 **********************************************************************************************************************************
 LABEL *                                                                                 
 Linux-3.2.0-4-amd64/qciep(x86_64) 64 bit serial version                                 DATE: 12-Feb-19          TIME: 17:10:28  
 **********************************************************************************************************************************

 SHA1:             960ce83de8be0427555cf121dea4debc26c720b5
 **********************************************************************************************************************************

 ZUNIT=ANG
 
 SETTING R              =         1.60000000                                  

 Variable memory set to    8000000 words,  buffer space   230000 words

 SETTING BASIS          =    AUG-CC-PVQZ


 Recomputing integrals since basis changed


 Using spherical harmonics

 Library entry C      S aug-cc-pVQZ          selected for orbital group  1
 Library entry C      P aug-cc-pVQZ          selected for orbital group  1
 Library entry C      D aug-cc-pVQZ          selected for orbital group  1
 Library entry C      F aug-cc-pVQZ          selected for orbital group  1
 Library entry C      G aug-cc-pVQZ          selected for orbital group  1
 Library entry O      S aug-cc-pVQZ          selected for orbital group  2
 Library entry O      P aug-cc-pVQZ          selected for orbital group  2
 Library entry O      D aug-cc-pVQZ          selected for orbital group  2
 Library entry O      F aug-cc-pVQZ          selected for orbital group  2
 Library entry O      G aug-cc-pVQZ          selected for orbital group  2

1PROGRAM * SEWARD (Integral evaluation for generally contracted gaussian basis sets)     Author: Roland Lindh, 1990

 Geometry written to block  1 of record 700

 Orientation using atomic masses  
 Molecule type: Linear
 Symmetry elements: X,Y
 Rotational constants:      28.7748897     28.7748897      0.0000000 GHz  (calculated with average atomic masses)

 Point group  C2v 



 ATOMIC COORDINATES

 NR  ATOM    CHARGE       X              Y              Z

   1  C       6.00    0.000000000    0.000000000   -1.727043342
   2  O       8.00    0.000000000    0.000000000    1.296518468

 Bond lengths in Bohr (Angstrom)

 1-2  3.023561810
     ( 1.600000000)

 NUCLEAR CHARGE:                   14
 NUMBER OF PRIMITIVE AOS:         236
 NUMBER OF SYMMETRY AOS:          186
 NUMBER OF CONTRACTIONS:          160   (  62A1  +  38B1  +  38B2  +  22A2  )
 NUMBER OF CORE ORBITALS:           2   (   2A1  +   0B1  +   0B2  +   0A2  )
 NUMBER OF VALENCE ORBITALS:        8   (   4A1  +   2B1  +   2B2  +   0A2  )


 NUCLEAR REPULSION ENERGY   15.87531627

 EXTRA SYMMETRY OF AOS IN SYMMETRY 1:   1 1 1 1 1 1 1 1 1 1   1 1 2 1 2 1 2 1 2 1   2 1 2 1 2 1 3 2 1 3   2 1 1 1 1 1 1 1 1 1
                                        1 1 1 2 1 2 1 2 1 2   1 2 1 2 1 2 1 3 2 1   3 2
 EXTRA SYMMETRY OF AOS IN SYMMETRY 2:   1 1 1 1 1 1 1 1 1 1   2 1 2 1 2 1 2 1 2 1   1 1 1 1 1 1 1 1 1 2   1 2 1 2 1 2 1 2
 EXTRA SYMMETRY OF AOS IN SYMMETRY 3:   1 1 1 1 1 1 1 1 1 1   2 1 2 1 2 1 2 1 2 1   1 1 1 1 1 1 1 1 1 2   1 2 1 2 1 2 1 2
 EXTRA SYMMETRY OF AOS IN SYMMETRY 4:   1 1 1 1 1 1 1 1 2 1   2 1 1 1 1 1 1 1 1 2   1 2

 Eigenvalues of metric

         1 0.242E-03 0.487E-03 0.592E-03 0.188E-02 0.355E-02 0.719E-02 0.901E-02 0.115E-01
         2 0.237E-02 0.872E-02 0.111E-01 0.190E-01 0.482E-01 0.562E-01 0.957E-01 0.115E+00
         3 0.237E-02 0.872E-02 0.111E-01 0.190E-01 0.482E-01 0.562E-01 0.957E-01 0.115E+00
         4 0.477E-01 0.100E+00 0.147E+00 0.186E+00 0.273E+00 0.352E+00 0.387E+00 0.387E+00


 Contracted 2-electron integrals neglected if value below      1.0D-11
 AO integral compression algorithm  1   Integral accuracy      1.0D-11

     91.488 MB (compressed) written to integral file ( 42.7%)


 NUMBER OF SORTED TWO-ELECTRON INTEGRALS:   21336328.     BUFFER LENGTH:  32768
 NUMBER OF SEGMENTS:   3  SEGMENT LENGTH:    7248501      RECORD LENGTH: 524288

 Memory used in sort:       7.81 MW

 SORT1 READ    26829300. AND WROTE    15245432. INTEGRALS IN     45 RECORDS. CPU TIME:     0.88 SEC, REAL TIME:     1.09 SEC
 SORT2 READ    15245432. AND WROTE    21336328. INTEGRALS IN    349 RECORDS. CPU TIME:     0.64 SEC, REAL TIME:     0.81 SEC

 FILE SIZES:   FILE 1:    99.6 MBYTE,  FILE 4:   188.8 MBYTE,   TOTAL:    288.4 MBYTE

 OPERATOR DM      FOR CENTER  0  COORDINATES:    0.000000    0.000000    0.000000


 **********************************************************************************************************************************
 DATASETS  * FILE   NREC   LENGTH (MB)   RECORD NAMES
              1      19       77.99       500      610      700      900      950      970     1000      129      960     1100   
                                          VAR    BASINP    GEOM    SYMINP    ZMAT    AOBASIS   BASIS     P2S    ABASIS      S 
                                         1400     1410     1200     1210     1080     1600     1650     1300     1700   
                                           T        V       H0       H01     AOSYM     SMH    MOLCAS    ERIS     OPER   

 PROGRAMS   *        TOTAL       INT
 CPU TIMES  *         7.91      7.77
 REAL TIME  *         8.49 SEC
 DISK USED  *       288.70 MB      
 **********************************************************************************************************************************

1PROGRAM * RHF-SCF (CLOSED SHELL)       Authors: W. Meyer, H.-J. Werner


 NUMBER OF ELECTRONS:       7+    7-
 CONVERGENCE THRESHOLDS:    1.00E-06 (Density)    1.00E-07 (Energy)
 MAX. NUMBER OF ITERATIONS:       60
 INTERPOLATION TYPE:            DIIS
 INTERPOLATION STEPS:              2 (START)      1 (STEP)
 LEVEL SHIFTS:                  0.00 (CLOSED)  0.00 (OPEN) 



 Orbital guess generated from atomic densities. Full valence occupancy:    6   2   2   0

 Molecular orbital dump at record        2100.2

 Initial alpha occupancy:   5   1   1   0
 Initial beta  occupancy:   5   1   1   0
 Wave function symmetry:    1

 ITERATION    DDIFF          GRAD             ENERGY        2-EL.EN.            DIPOLE MOMENTS         DIIS   ORB.
    1      0.000D+00      0.000D+00      -112.36292452    115.526533    0.00000    0.00000   -2.65778    0    start
    2      0.000D+00      0.210D-01      -111.85337264    108.367575    0.00000    0.00000    2.83281    1    diag
    3      0.343D-01      0.478D-01      -112.53099153    113.571813    0.00000    0.00000   -0.99479    2    diag
    4      0.228D-01      0.143D-02      -112.53284325    113.630797    0.00000    0.00000   -1.05567    3    diag
    5      0.158D-02      0.715D-03      -112.53352375    113.702896    0.00000    0.00000   -1.07621    4    diag
    6      0.101D-02      0.519D-03      -112.53398970    113.701664    0.00000    0.00000   -1.07411    5    diag
    7      0.111D-02      0.249D-03      -112.53414208    113.713236    0.00000    0.00000   -1.06550    6    diag
    8      0.903D-03      0.650D-04      -112.53414928    113.716465    0.00000    0.00000   -1.06597    7    diag
    9      0.202D-03      0.101D-04      -112.53414936    113.717878    0.00000    0.00000   -1.06623    8    diag
   10      0.163D-04      0.265D-05      -112.53414936    113.717668    0.00000    0.00000   -1.06613    9    orth
   11      0.343D-05      0.196D-06      -112.53414936    113.717666    0.00000    0.00000   -1.06614    9    diag
   12      0.333D-06      0.448D-07      -112.53414936    113.717654    0.00000    0.00000   -1.06614    0    orth

 Final occupancy:   5   1   1   0

 !RHF STATE 1.1 Energy               -112.534149362594
 Nuclear energy                        15.87531627
 One-electron energy                 -185.26829279
 Two-electron energy                   56.85882716
 Virial quotient                       -1.00854459
 !RHF STATE 1.1 Dipole moment           0.00000000     0.00000000    -1.06613952
 Dipole moment /Debye                   0.00000000     0.00000000    -2.70967889

 ELECTRON ORBITALS
 =================


   Orb  Occ    Energy  Couls-En    Coefficients

                                   1 1s      1 1s      1 1s      1 1s      1 1s      1 1s      1 2pz     1 2pz     1 2pz     1 2pz  
                                   1 2pz     1 3d0     1 3d2+    1 3d0     1 3d2+    1 3d0     1 3d2+    1 3d0     1 3d2+    1 4f0  
                                   1 4f2+    1 4f0     1 4f2+    1 4f0     1 4f2+    1 5g0     1 5g4+    1 5g2+    1 5g0     1 5g4+ 
                                   1 5g2+    2 1s      2 1s      2 1s      2 1s      2 1s      2 1s      2 2pz     2 2pz     2 2pz  
                                   2 2pz     2 2pz     2 3d0     2 3d2+    2 3d0     2 3d2+    2 3d0     2 3d2+    2 3d0     2 3d2+ 
                                   2 4f0     2 4f2+    2 4f0     2 4f2+    2 4f0     2 4f2+    2 5g0     2 5g4+    2 5g2+    2 5g0  
                                   2 5g4+    2 5g2+ 

   1.1   2   -20.6453  -54.5546  0.000085  0.000331  0.000214 -0.001486 -0.002296 -0.000225  0.000157  0.000020 -0.001265 -0.001009
                                 0.000026  0.000032  0.000000 -0.000154 -0.000000 -0.000301 -0.000000 -0.000118 -0.000000 -0.000019
                                 0.000000  0.000003 -0.000000  0.000052 -0.000000 -0.000032 -0.000000  0.000000  0.000087 -0.000000
                                -0.000000  1.000802  0.001947 -0.000616 -0.002433  0.002523  0.001134 -0.006996  0.003040  0.002803
                                -0.000324 -0.000297  0.000057  0.000000 -0.000287  0.000000  0.000538  0.000000  0.000596  0.000000
                                -0.000000 -0.000000 -0.000040 -0.000000 -0.000262 -0.000000 -0.000003 -0.000000  0.000000  0.000052
                                -0.000000  0.000000

   2.1   2   -11.5224  -32.1050  1.001139  0.001391 -0.002352 -0.000799  0.003738  0.000670  0.012292 -0.005684 -0.003554 -0.000649
                                 0.000229 -0.000226 -0.000000  0.000625  0.000000  0.001530 -0.000000  0.000583  0.000000 -0.000035
                                 0.000000  0.000472 -0.000000  0.000439  0.000000  0.000055 -0.000000 -0.000000  0.000194 -0.000000
                                 0.000000  0.000062  0.000577  0.000168 -0.000798 -0.003474 -0.002326 -0.000280 -0.000209  0.001062
                                 0.001195  0.000316  0.000057  0.000000 -0.000134 -0.000000 -0.000255 -0.000000  0.000195 -0.000000
                                 0.000011  0.000000  0.000078 -0.000000 -0.000206  0.000000 -0.000056  0.000000 -0.000000  0.000152
                                -0.000000  0.000000

   3.1   2    -1.2770  -10.1599 -0.002308  0.273703  0.003893 -0.039455 -0.055390 -0.000072  0.145710  0.000223 -0.020789 -0.028120
                                 0.000216  0.003481  0.000000  0.010520 -0.000000  0.014193  0.000000  0.001296 -0.000000  0.000897
                                 0.000000  0.003528 -0.000000  0.004102 -0.000000  0.000423 -0.000000 -0.000000  0.001101 -0.000000
                                -0.000000 -0.001894  0.905108  0.000193 -0.022766 -0.002925  0.012387 -0.059805 -0.000272 -0.006674
                                -0.012462 -0.001865  0.000353  0.000000  0.003616 -0.000000  0.012792  0.000000  0.007349 -0.000000
                                -0.000131  0.000000 -0.003212  0.000000 -0.004919 -0.000000  0.000086  0.000000 -0.000000  0.001771
                                -0.000000  0.000000

   4.1   2    -0.8051   -7.6745  0.002234  0.938915  0.019987 -0.022731 -0.078789 -0.002600 -0.060465  0.003765 -0.006535  0.002500
                                 0.000330  0.001553  0.000000 -0.000134 -0.000000  0.007337  0.000000  0.002190 -0.000000  0.000490
                                -0.000000  0.001551  0.000000  0.002946 -0.000000  0.000433 -0.000000 -0.000000  0.000533 -0.000000
                                -0.000000 -0.002217 -0.351535 -0.005206 -0.007752 -0.042885 -0.005073 -0.311261  0.003030  0.000796
                                 0.007842 -0.002396  0.001456 -0.000000  0.006649  0.000000  0.014859  0.000000  0.007850 -0.000000
                                -0.000449  0.000000 -0.003430  0.000000 -0.003613 -0.000000  0.000163  0.000000  0.000000  0.001505
                                 0.000000 -0.000000

   5.1   2    -0.5305   -7.5908  0.002680  0.277116  0.005844  0.040114  0.068093  0.007232 -0.705903  0.004869  0.036892  0.064482
                                -0.000821 -0.004830  0.000000 -0.016971 -0.000000 -0.020098  0.000000 -0.003514 -0.000000  0.000006
                                -0.000000 -0.000399  0.000000 -0.003589 -0.000000 -0.000953  0.000000 -0.000000 -0.000490  0.000000
                                 0.000000  0.001996  0.140795  0.005583  0.012201  0.046161  0.020271  0.611213 -0.003483  0.004166
                                 0.024715  0.012734 -0.002034 -0.000000 -0.009515  0.000000 -0.023596 -0.000000 -0.016591 -0.000000
                                 0.000725 -0.000000  0.005449 -0.000000  0.007443  0.000000 -0.000029 -0.000000  0.000000 -0.002662
                                -0.000000 -0.000000

                                   1 2px     1 2px     1 2px     1 2px     1 2px     1 3d1+    1 3d1+    1 3d1+    1 3d1+    1 4f1+ 
                                   1 4f3+    1 4f1+    1 4f3+    1 4f1+    1 4f3+    1 5g1+    1 5g3+    1 5g1+    1 5g3+    2 2px  
                                   2 2px     2 2px     2 2px     2 2px     2 3d1+    2 3d1+    2 3d1+    2 3d1+    2 4f1+    2 4f3+ 
                                   2 4f1+    2 4f3+    2 4f1+    2 4f3+    2 5g1+    2 5g3+    2 5g1+    2 5g3+ 

   1.2   2    -0.4975   -8.1623  0.311521 -0.001417  0.001328 -0.013423 -0.000606  0.003231  0.017536  0.023812  0.003098  0.000985
                                -0.000000  0.005818 -0.000000  0.003047 -0.000000  0.000778 -0.000000  0.001130 -0.000000  0.841293
                                -0.005154  0.004095  0.043929  0.026090 -0.001664 -0.007275 -0.018980 -0.012690  0.000625 -0.000000
                                 0.004552 -0.000000  0.004542 -0.000000 -0.000232  0.000000 -0.001685  0.000000

                                   1 2py     1 2py     1 2py     1 2py     1 2py     1 3d1-    1 3d1-    1 3d1-    1 3d1-    1 4f1- 
                                   1 4f3-    1 4f1-    1 4f3-    1 4f1-    1 4f3-    1 5g1-    1 5g3-    1 5g1-    1 5g3-    2 2py  
                                   2 2py     2 2py     2 2py     2 2py     2 3d1-    2 3d1-    2 3d1-    2 3d1-    2 4f1-    2 4f3- 
                                   2 4f1-    2 4f3-    2 4f1-    2 4f3-    2 5g1-    2 5g3-    2 5g1-    2 5g3- 

   1.3   2    -0.4975   -8.1623  0.311521 -0.001417  0.001328 -0.013423 -0.000606  0.003231  0.017536  0.023812  0.003098  0.000985
                                 0.000000  0.005818  0.000000  0.003047  0.000000  0.000778  0.000000  0.001130  0.000000  0.841293
                                -0.005154  0.004095  0.043929  0.026090 -0.001664 -0.007275 -0.018980 -0.012690  0.000625  0.000000
                                 0.004552  0.000000  0.004542  0.000000 -0.000232 -0.000000 -0.001685 -0.000000

 HOMO      1.2    -0.497460 =     -13.5366eV
 LUMO      2.2    -0.006773 =      -0.1843eV
 LUMO-HOMO         0.490687 =      13.3523eV


 **********************************************************************************************************************************
 DATASETS  * FILE   NREC   LENGTH (MB)   RECORD NAMES
              1      19       77.99       500      610      700      900      950      970     1000      129      960     1100   
                                          VAR    BASINP    GEOM    SYMINP    ZMAT    AOBASIS   BASIS     P2S    ABASIS      S 
                                         1400     1410     1200     1210     1080     1600     1650     1300     1700   
                                           T        V       H0       H01     AOSYM     SMH    MOLCAS    ERIS     OPER   

              2       4        0.46       700     1000      520     2100   
                                         GEOM     BASIS   MCVARS     RHF  

 PROGRAMS   *        TOTAL        HF       INT
 CPU TIMES  *         9.52      1.61      7.77
 REAL TIME  *        10.24 SEC
 DISK USED  *       288.70 MB      
 **********************************************************************************************************************************


 PROGRAM * OPT (Geometry optimization)     Authors: F. Eckert and H.-J. Werner


 BFGS update of hessian

 *** Long output written to logfile /home/jcartus/Repos/TMSoCM/TaskB/taskB.log ***


 Geometry optimization using default procedure for command HF-SCF

 Geometry written to block  1 of record 700

 Making model hessian for Z-matrix coordinates

 Quadratic Steepest Descent - Minimum Search

 ITER.   ENERGY(OLD)    ENERGY(NEW)      DE          GRADMAX     GRADNORM    GRADRMS     STEPMAX     STEPLEN     STEPRMS   CPU-time
   1  -112.53414936  -112.68353298    -0.14938361  0.31347111  0.31347111  0.31347111  0.45000018  0.45000018  0.45000018     37.24
   2  -112.68353298  -112.78958931    -0.10605634  0.32824117  0.32824117  0.32824117  0.45000046  0.45000046  0.45000046     74.36
   3  -112.78958931  -112.78825034     0.00133897  0.05820949  0.05820949  0.05820949  0.09700453  0.09700453  0.09700453    110.91
   4  -112.78825034  -112.79079981    -0.00254947  0.09463200  0.09463200  0.09463200  0.06006048  0.06006048  0.06006048    147.40
   5  -112.79079981  -112.79081224    -0.00001243  0.00615996  0.00615996  0.00615996  0.00367063  0.00367063  0.00367063    184.01
   6  -112.79081224  -112.79081236    -0.00000012  0.00059885  0.00059885  0.00059885  0.00039527  0.00039527  0.00039527    220.35
   7  -112.79081236  -112.79081236    -0.00000000  0.00000441  0.00000441  0.00000441  0.00000289  0.00000289  0.00000289    259.02

 END OF GEOMETRY OPTIMIZATION.

 Optimized variables
 R=                   1.10204016 ANGSTROM

 **********************************************************************************************************************************

 Current geometry (xyz format, in Angstrom)

    2
 HF-SCF000/AUG-CC-PVQZ  ENERGY=-112.79081236
 C          0.0000000000        0.0000000000       -0.6294798146
 O          0.0000000000        0.0000000000        0.4725603493

 **********************************************************************************************************************************

 Geometry written to block  1 of record 700


 **********************************************************************************************************************************
 DATASETS  * FILE   NREC   LENGTH (MB)   RECORD NAMES
              1      19       79.39       500      610      700      900      950      970     1000      129      960     1100   
                                          VAR    BASINP    GEOM    SYMINP    ZMAT    AOBASIS   BASIS     P2S    ABASIS      S 
                                         1400     1410     1200     1210     1080     1600     1650     1300     1700   
                                           T        V       H0       H01     AOSYM     SMH    MOLCAS    ERIS     OPER   

              2       4        0.46       700     1000      520     2100   
                                         GEOM     BASIS   MCVARS     RHF  

 PROGRAMS   *        TOTAL      OPTG        HF       INT
 CPU TIMES  *       268.54    259.02      1.61      7.77
 REAL TIME  *       274.71 SEC
 DISK USED  *       290.74 MB      
 **********************************************************************************************************************************

1PROGRAM * RHF-SCF (CLOSED SHELL)       Authors: W. Meyer, H.-J. Werner


 NUMBER OF ELECTRONS:       7+    7-
 CONVERGENCE THRESHOLDS:    1.00E-07 (Density)    1.00E-07 (Energy)
 MAX. NUMBER OF ITERATIONS:       60
 INTERPOLATION TYPE:            DIIS
 INTERPOLATION STEPS:              2 (START)      1 (STEP)
 LEVEL SHIFTS:                  0.00 (CLOSED)  0.00 (OPEN) 



 Molecular orbitals read from record     2100.2  Type=RHF/CANONICAL (state 1.1)

 Molecular orbital dump at record        2101.2

 ITERATION    DDIFF          GRAD             ENERGY        2-EL.EN.            DIPOLE MOMENTS         DIIS   ORB.
    1      0.000D+00      0.000D+00      -112.79081236    126.816688    0.00000    0.00000   -0.05396    0    start
    2      0.000D+00      0.243D-07      -112.79081236    126.816695    0.00000    0.00000   -0.05396    0    orth

 Final occupancy:   5   1   1   0

 !RHF STATE 1.1 Energy               -112.790812356806
 Nuclear energy                        23.04862097
 One-electron energy                 -199.24778086
 Two-electron energy                   63.40834753
 Virial quotient                       -1.00006775
 !RHF STATE 1.1 Dipole moment           0.00000000     0.00000000    -0.05396101
 Dipole moment /Debye                   0.00000000     0.00000000    -0.13714622

 ELECTRON ORBITALS
 =================


   Orb  Occ    Energy  Couls-En    Coefficients

                                   1 1s      1 1s      1 1s      1 1s      1 1s      1 1s      1 2pz     1 2pz     1 2pz     1 2pz  
                                   1 2pz     1 3d0     1 3d2+    1 3d0     1 3d2+    1 3d0     1 3d2+    1 3d0     1 3d2+    1 4f0  
                                   1 4f2+    1 4f0     1 4f2+    1 4f0     1 4f2+    1 5g0     1 5g4+    1 5g2+    1 5g0     1 5g4+ 
                                   1 5g2+    2 1s      2 1s      2 1s      2 1s      2 1s      2 1s      2 2pz     2 2pz     2 2pz  
                                   2 2pz     2 2pz     2 3d0     2 3d2+    2 3d0     2 3d2+    2 3d0     2 3d2+    2 3d0     2 3d2+ 
                                   2 4f0     2 4f2+    2 4f0     2 4f2+    2 4f0     2 4f2+    2 5g0     2 5g4+    2 5g2+    2 5g0  
                                   2 5g4+    2 5g2+ 

   1.1   2   -20.6642  -55.4687 -0.000004  0.000007 -0.000469 -0.001373 -0.001154 -0.000076  0.000373 -0.000300  0.000673  0.000215
                                 0.000050 -0.000076  0.000000  0.000291 -0.000000  0.001077 -0.000000  0.000123 -0.000000 -0.000009
                                -0.000000  0.000268 -0.000000  0.000362 -0.000000  0.000024 -0.000000 -0.000000  0.000060 -0.000000
                                -0.000000  1.000297  0.001957  0.000581 -0.003931  0.001580  0.001034 -0.006684  0.002562  0.002957
                                -0.000811 -0.000379  0.000142  0.000000  0.000120  0.000000  0.000582  0.000000  0.000737  0.000000
                                -0.000069  0.000000 -0.000127 -0.000000 -0.000191 -0.000000  0.000052 -0.000000  0.000000  0.000031
                                -0.000000  0.000000

   2.1   2   -11.3484  -33.1242  0.999543  0.000765  0.001245 -0.007305  0.000207  0.000264  0.012703 -0.005318 -0.007388 -0.001643
                                 0.000235  0.000299 -0.000000  0.000092 -0.000000  0.000676  0.000000  0.000661  0.000000  0.000161
                                -0.000000  0.000147 -0.000000  0.000409  0.000000  0.000070 -0.000000 -0.000000  0.000127 -0.000000
                                 0.000000 -0.000308  0.001810 -0.000534 -0.000213  0.002743 -0.000038 -0.001318 -0.000020 -0.001610
                                -0.003436 -0.000420  0.000014 -0.000000  0.000646 -0.000000  0.000978 -0.000000  0.001134 -0.000000
                                -0.000170  0.000000 -0.000422 -0.000000 -0.000039  0.000000  0.000157  0.000000  0.000000  0.000037
                                -0.000000 -0.000000

   3.1   2    -1.5401  -11.8856 -0.011841  0.461992 -0.006740 -0.146397 -0.121470 -0.001272  0.358430 -0.016088 -0.093524 -0.081845
                                -0.000338  0.012627 -0.000000  0.027626 -0.000000  0.021252 -0.000000  0.001014 -0.000000  0.005445
                                -0.000000  0.008994 -0.000000  0.003336 -0.000000  0.002377 -0.000000 -0.000000  0.001471 -0.000000
                                -0.000000 -0.004043  0.837206 -0.005671 -0.066137 -0.067999  0.010937 -0.250624  0.002128  0.018463
                                 0.022483 -0.002107  0.003517 -0.000000  0.012623  0.000000  0.023816  0.000000  0.008490  0.000000
                                -0.001468 -0.000000 -0.005143 -0.000000 -0.004525 -0.000000  0.000842  0.000000  0.000000  0.001042
                                -0.000000 -0.000000

   4.1   2    -0.8069   -9.6502 -0.001372  0.553682 -0.005521 -0.046292 -0.060951  0.004194  0.219365 -0.006583 -0.031961 -0.039249
                                 0.000154  0.007766  0.000000  0.020735 -0.000000  0.021734 -0.000000  0.003910 -0.000000  0.003872
                                 0.000000  0.009789 -0.000000  0.002531 -0.000000  0.001756 -0.000000  0.000000  0.002615 -0.000000
                                -0.000000 -0.001780 -0.464523  0.003042 -0.069536 -0.166828 -0.029445 -0.754759  0.003995  0.047597
                                 0.065979 -0.002813  0.004078 -0.000000  0.013322 -0.000000  0.015454  0.000000  0.007753  0.000000
                                -0.001314 -0.000000 -0.003196  0.000000 -0.002416 -0.000000  0.000892 -0.000000 -0.000000  0.000602
                                 0.000000  0.000000

   5.1   2    -0.5517   -7.1943  0.002773  0.620194 -0.006857  0.066321  0.142192  0.019107 -0.714010  0.013832  0.079558  0.099449
                                 0.000023 -0.008731  0.000000 -0.022278 -0.000000 -0.010137 -0.000000  0.000844 -0.000000 -0.002654
                                -0.000000 -0.002285 -0.000000  0.001596 -0.000000 -0.001613 -0.000000 -0.000000 -0.000221 -0.000000
                                -0.000000 -0.001076 -0.079995 -0.001898  0.015562  0.025907  0.009945  0.354995 -0.000707 -0.013044
                                -0.021171  0.003155 -0.002219 -0.000000 -0.008264  0.000000 -0.010717  0.000000  0.000227  0.000000
                                 0.001455  0.000000  0.003377 -0.000000  0.001483 -0.000000 -0.001257  0.000000 -0.000000 -0.000662
                                -0.000000  0.000000

                                   1 2px     1 2px     1 2px     1 2px     1 2px     1 3d1+    1 3d1+    1 3d1+    1 3d1+    1 4f1+ 
                                   1 4f3+    1 4f1+    1 4f3+    1 4f1+    1 4f3+    1 5g1+    1 5g3+    1 5g1+    1 5g3+    2 2px  
                                   2 2px     2 2px     2 2px     2 2px     2 3d1+    2 3d1+    2 3d1+    2 3d1+    2 4f1+    2 4f3+ 
                                   2 4f1+    2 4f3+    2 4f1+    2 4f3+    2 5g1+    2 5g3+    2 5g1+    2 5g3+ 

   1.2   2    -0.6521   -9.2583  0.452208 -0.004391 -0.054182 -0.081869 -0.002013  0.011814  0.030154  0.021970 -0.003322  0.005817
                                -0.000000  0.006037 -0.000000  0.003404 -0.000000  0.002754 -0.000000  0.000410 -0.000000  0.797060
                                -0.002498  0.003984 -0.005137  0.012202 -0.003512 -0.019012 -0.030424 -0.012507  0.001761 -0.000000
                                 0.006885  0.000000  0.005508  0.000000 -0.001216  0.000000 -0.001703 -0.000000

                                   1 2py     1 2py     1 2py     1 2py     1 2py     1 3d1-    1 3d1-    1 3d1-    1 3d1-    1 4f1- 
                                   1 4f3-    1 4f1-    1 4f3-    1 4f1-    1 4f3-    1 5g1-    1 5g3-    1 5g1-    1 5g3-    2 2py  
                                   2 2py     2 2py     2 2py     2 2py     2 3d1-    2 3d1-    2 3d1-    2 3d1-    2 4f1-    2 4f3- 
                                   2 4f1-    2 4f3-    2 4f1-    2 4f3-    2 5g1-    2 5g3-    2 5g1-    2 5g3- 

   1.3   2    -0.6521   -9.2583  0.452208 -0.004391 -0.054182 -0.081869 -0.002013  0.011814  0.030154  0.021970 -0.003322  0.005817
                                 0.000000  0.006037  0.000000  0.003404  0.000000  0.002754  0.000000  0.000410  0.000000  0.797060
                                -0.002498  0.003984 -0.005137  0.012202 -0.003512 -0.019012 -0.030424 -0.012507  0.001761  0.000000
                                 0.006885 -0.000000  0.005508 -0.000000 -0.001216 -0.000000 -0.001703  0.000000

 HOMO      5.1    -0.551718 =     -15.0130eV
 LUMO      6.1     0.059679 =       1.6239eV
 LUMO-HOMO         0.611397 =      16.6369eV


 **********************************************************************************************************************************
 DATASETS  * FILE   NREC   LENGTH (MB)   RECORD NAMES
              1      19       79.39       500      610      700      900      950      970     1000      129      960     1100   
                                          VAR    BASINP    GEOM    SYMINP    ZMAT    AOBASIS   BASIS     P2S    ABASIS      S 
                                         1400     1410     1200     1210     1080     1600     1650     1300     1700   
                                           T        V       H0       H01     AOSYM     SMH    MOLCAS    ERIS     OPER   

              2       5        0.80       700     1000      520     2100     2101   
                                         GEOM     BASIS   MCVARS     RHF      RHF  

 PROGRAMS   *        TOTAL        HF      OPTG        HF       INT
 CPU TIMES  *       268.80      0.26    259.02      1.61      7.77
 REAL TIME  *       274.98 SEC
 DISK USED  *       290.74 MB      
 **********************************************************************************************************************************


1PROGRAM * CCSD (Closed-shell coupled cluster)     Authors: C. Hampel, H.-J. Werner, 1991, M. Deegan, P.J. Knowles, 1992


 Convergence thresholds:  THRVAR = 1.00D-12  THRDEN = 1.00D-08

 CCSD(T)     terms to be evaluated (factor= 1.000)


 Number of core orbitals:           2 (   2   0   0   0 )
 Number of closed-shell orbitals:   5 (   3   1   1   0 )
 Number of external orbitals:     153 (  57  37  37  22 )

 Molecular orbitals read from record     2101.2  Type=RHF/CANONICAL (state 1.1)

 Number of N-1 electron functions:               5
 Number of N-2 electron functions:              15
 Number of singly external CSFs:               245
 Number of doubly external CSFs:             76295
 Total number of CSFs:                       76541

 Length of J-op  integral file:               0.00 MB
 Length of K-op  integral file:               0.54 MB
 Length of 3-ext integral record:             0.00 MB

 Memory could be reduced to 7.40 Mwords without degradation in triples

 Integral transformation finished. Total CPU:   0.76 sec, npass=  1  Memory used:   0.94 MW

 Reference energy:                   -112.79081236

 MP2 singlet pair energy:              -0.24048914
 MP2 triplet pair energy:              -0.13914128
 MP2 correlation energy:               -0.37963042
 MP2 total energy:                   -113.17044278

 SCS-MP2 correlation energy:           -0.37516377   (PS=  1.200000  PT=  0.333333)
 SCS-MP2 total energy:               -113.16597612

 ITER.      SQ.NORM     CORR.ENERGY   TOTAL ENERGY   ENERGY CHANGE        DEN1      VAR(S)    VAR(P)  DIIS     TIME
   1      1.09889134    -0.37988808  -113.17070044    -0.00025766     0.01300814  0.33D-02  0.26D-02  1  1     1.65
   2      1.10755287    -0.37949292  -113.17030527     0.00039517    -0.00991334  0.69D-04  0.38D-03  2  2     2.59
   3      1.11227373    -0.37973285  -113.17054520    -0.00023993    -0.00221580  0.46D-04  0.24D-04  3  3     3.54
   4      1.11395551    -0.37959771  -113.17041007     0.00013513    -0.00068155  0.26D-05  0.27D-05  4  4     4.49
   5      1.11446431    -0.37959958  -113.17041193    -0.00000186    -0.00013096  0.30D-06  0.19D-06  5  5     5.45
   6      1.11456539    -0.37958777  -113.17040013     0.00001181    -0.00002202  0.17D-07  0.17D-07  6  6     6.41
   7      1.11457683    -0.37958744  -113.17039979     0.00000033    -0.00000028  0.19D-08  0.14D-08  6  1     7.36
   8      1.11457985    -0.37958666  -113.17039901     0.00000078    -0.00000014  0.13D-09  0.11D-09  6  2     8.33
   9      1.11458078    -0.37958648  -113.17039884     0.00000018    -0.00000021  0.75D-11  0.96D-11  6  3     9.28
  10      1.11458079    -0.37958649  -113.17039885    -0.00000001     0.00000009  0.11D-11  0.10D-11  6  4    10.23
  11      1.11458085    -0.37958648  -113.17039883     0.00000002    -0.00000002  0.11D-12  0.11D-12  6  5    11.18
  12      1.11458081    -0.37958649  -113.17039884    -0.00000001     0.00000002  0.88D-14  0.14D-13  6  1    12.13
  13      1.11458080    -0.37958649  -113.17039884     0.00000000     0.00000000  0.42D-15  0.69D-15  6  6    13.09
  14      1.11458080    -0.37958649  -113.17039884    -0.00000000     0.00000000  0.38D-16  0.10D-15  6  2    14.03

 Norm of t1 vector:      0.07387455      S-energy:    -0.00000000      T1 diagnostic:  0.01651885
                                                                       D1 diagnostic:  0.03417204


 Total CPU time for triples:      4.59 sec


 RESULTS
 =======

  Reference energy                   -112.790812356806
  CCSD singlet pair energy             -0.259263656262
  CCSD triplet pair energy             -0.120322827584
  CCSD correlation energy              -0.379586485862

  Triples (T) contribution             -0.017915557152
  Total correlation energy             -0.397502043014

  CCSD total energy                  -113.170398842669
  CCSD[T] energy                     -113.189512932331
  CCSD-T energy                      -113.187872973353
 !CCSD(T) total energy               -113.188314399821

 Timing summary (sec):

 STEP                 CPU(USER)    SYS     CPU(TOT)    WALL
 Transformation          0.77      0.10      0.87      0.87
 CCSD iterations        13.26      0.63     13.89     13.91
 Triples                 4.59      0.12      4.71      4.71

 Program statistics:

 Available memory in ccsd:                 7999800
 Min. memory needed in ccsd:                309467
 Max. memory used in ccsd:                  367041
 Max. memory used in cckext:                455257 (14 integral passes)



 **********************************************************************************************************************************
 DATASETS  * FILE   NREC   LENGTH (MB)   RECORD NAMES
              1      20       99.26       500      610      700      900      950      970     1000      129      960     1100   
                                          VAR    BASINP    GEOM    SYMINP    ZMAT    AOBASIS   BASIS     P2S    ABASIS      S 
                                         1400     1410     1200     1210     1080     1600     1650     1300     1700     1380   
                                           T        V       H0       H01     AOSYM     SMH    MOLCAS    ERIS     OPER     JKOP   

              2       5        0.80       700     1000      520     2100     2101   
                                         GEOM     BASIS   MCVARS     RHF      RHF  

 PROGRAMS   *        TOTAL   CCSD(T)        HF      OPTG        HF       INT
 CPU TIMES  *       287.46     18.65      0.26    259.02      1.61      7.77
 REAL TIME  *       294.52 SEC
 DISK USED  *       290.74 MB      
 **********************************************************************************************************************************


 PROGRAM * HESSIAN

 Computing numerical hessian using default procedure for command CCSD(T)

 Symmetry elements for unique displacements: X  Y  

 Using AUTO symmetry option

 Running default procedure: HF-SCF001  CCSD(T)
 

 Numerically approximating hessian using central energy differences

 Task list generated. Total number of displacements:     12

    5 tasks completed, CPU=3m 37s Elapsed=3m 38s
   10 tasks completed, CPU=7m 15s Elapsed=7m 18s

 Numerical CCSD(T) hessian completed. CPU-time:   493.97 sec, Elapsed:   496.55 sec

 CCSD(T) hessian saved to record  5300.2

 FREQUENCIES * CALCULATION OF HARMONIC VIBRATIONAL SPECTRA FOR CCSD(T)


 Permanent Dipole Moment [debye]
   1-  3    0.000000    0.000000    0.000000

 Dipole Moment Norm    0.0000000 [debye]

 Dipole Moment Derivatives [debye/ang]
                   1             2             3             4             5             6
         1     0.0000000     0.0000000     0.0000000     0.0000000     0.0000000     0.0000000
         2     0.0000000     0.0000000     0.0000000     0.0000000     0.0000000     0.0000000
         3     0.0000000     0.0000000     0.0000000     0.0000000     0.0000000     0.0000000

 Projecting out rotations and translations

   Low Vibration      Wavenumber
        Nr             [1/cm] 
        1                0.00
        2                0.00
        3                0.00
        4                0.00
        5                0.00

     Vibration        Wavenumber
        Nr             [1/cm] 
        1             2397.32

 FREQUENCIES * CALCULATION OF NORMAL MODES FOR CCSD(T)


 Atomic Coordinates

  Nr  Atom  Charge       X              Y              Z

   1   C     6.00    0.000000000    0.000000000   -1.189544455
   2   O     8.00    0.000000000    0.000000000    0.893009641

 Frequencies dumped to record   5400.2

 Gradient norm at reference geometry: 0.10728D+00

 ?WARNING: GRADIENT NORM NOT ZERO!

 Normal Modes

                              1 A1 
 Wavenumbers [cm-1]         2397.32
 Intensities [km/mol]          0.00
 Intensities [relative]        0.00
           CX1              0.00000
           CY1              0.00000
           CZ1              0.21807
           OX2              0.00000
           OY2              0.00000
           OZ2             -0.16371


 Normal Modes of low/zero frequencies

                                  1           2           3           4           5
 Wavenumbers [cm-1]            0.00        0.00        0.00        0.00        0.00
 Intensities [km/mol]          0.00        0.00        0.00        0.00        0.00
 Intensities [relative]        0.00        0.00        0.00        0.00        0.00
           CX1              0.00000     0.03809     0.00000     0.28602     0.00000
           CY1              0.00000     0.00000     0.03746     0.00000     0.28610
           CZ1              0.18895     0.00000     0.00000     0.00000     0.00000
           OX2              0.00000     0.24782     0.00000    -0.03300     0.00000
           OY2              0.00000     0.00000     0.24789     0.00000    -0.03246
           OZ2              0.18895     0.00000     0.00000     0.00000     0.00000


 Zero point energy:  0.00546149 [H]     1198.66 [1/CM]       14.34 [KJ/MOL]
 Frequency information read from record  5400.2

        CCSD(T)         HF-SCF          OPTG(HF)        HF-SCF  
   -113.18831440   -112.79081236   -112.79081236   -112.53414936
 **********************************************************************************************************************************
 Variable memory released
