
 Primary working directories    : /tmp/jcartus
 Secondary working directories  : /tmp/jcartus
 Wavefunction directory         : /home/jcartus/wfu/
 Main file repository           : /tmp/jcartus/

 SHA1      : 960ce83de8be0427555cf121dea4debc26c720b5
 NAME      : 2012.1.960ce83
 ARCHNAME  : Linux/x86_64
 FC        : /opt/intel/composer_xe_2013_sp1.2.144/bin/intel64/ifort
 FCVERSION : 14.0.2
 BLASLIB   : -Wl,-_start-group /opt/intel/mkl/lib/intel64/libmkl_intel_ilp64.a /opt/intel/mkl/lib/intel64/libmkl_sequential.a /opt/intel/mkl/lib/intel64/libmkl_core.a -Wl,-_end-group
 id        : tugraziep

 Nodes     nprocs
 qciep        1

 Using customized tuning parameters: mindgm=7; mindgv=24; mindgc=1; mindgr=1; noblas=0; minvec=7
 default implementation of scratch files=df  

 gprint,orbital
 
                                                                                 !Geometry and Variables
 angstrom
 geometry={
 C
 O   C  r
 }
 r = 1.6
 
                                                                                 !basis=aug-cc-pCVQZ
 basis=cc-pVDZ
 
                                                                                 !method: CCSD(T)
                                                                    !httpss://www.molpro.net/info/2015.1/doc/quickstart/node15.html
 hf
 ccsd(t)
 optg
 
                                                                                 !get virbational frew of CO in groud state
                                                                                 !(analytical calculation not possible anymore)
                                                                     !https://www.molpro.net/info/2015.1/doc/quickstart/node28.html
 frequencies,symm=auto
 

 Variables initialized (778), CPU time= 0.02 sec
 Commands  initialized (547), CPU time= 0.01 sec, 516 directives.
 Default parameters read. Elapsed time= 0.60 sec

 Checking input...
 Passed
1


                                         ***  PROGRAM SYSTEM MOLPRO  ***
                         Copyright, University College Cardiff Consultants Limited, 2008

                                    Version 2012.1 linked Apr  1 2014 15:33:03


 **********************************************************************************************************************************
 LABEL *                                                                                 
 Linux-3.2.0-4-amd64/qciep(x86_64) 64 bit serial version                                 DATE: 28-Nov-18          TIME: 15:55:08  
 **********************************************************************************************************************************

 SHA1:             960ce83de8be0427555cf121dea4debc26c720b5
 **********************************************************************************************************************************

 ZUNIT=ANG
 
 SETTING R              =         1.60000000                                  

 Variable memory set to    8000000 words,  buffer space   230000 words

 SETTING BASIS          =    CC-PVDZ


 Recomputing integrals since basis changed


 Using spherical harmonics

 Library entry C      S cc-pVDZ              selected for orbital group  1
 Library entry C      P cc-pVDZ              selected for orbital group  1
 Library entry C      D cc-pVDZ              selected for orbital group  1
 Library entry O      S cc-pVDZ              selected for orbital group  2
 Library entry O      P cc-pVDZ              selected for orbital group  2
 Library entry O      D cc-pVDZ              selected for orbital group  2

1PROGRAM * SEWARD (Integral evaluation for generally contracted gaussian basis sets)     Author: Roland Lindh, 1990

 Geometry written to block  1 of record 700

 Orientation using atomic masses  
 Molecule type: Linear
 Symmetry elements: X,Y
 Rotational constants:      28.7748897     28.7748897      0.0000000 GHz  (calculated with average atomic masses)

 Point group  C2v 



 ATOMIC COORDINATES

 NR  ATOM    CHARGE       X              Y              Z

   1  C       6.00    0.000000000    0.000000000   -1.727043342
   2  O       8.00    0.000000000    0.000000000    1.296518468

 Bond lengths in Bohr (Angstrom)

 1-2  3.023561810
     ( 1.600000000)

 NUCLEAR CHARGE:                   14
 NUMBER OF PRIMITIVE AOS:          54
 NUMBER OF SYMMETRY AOS:           52
 NUMBER OF CONTRACTIONS:           28   (  14A1  +   6B1  +   6B2  +   2A2  )
 NUMBER OF CORE ORBITALS:           2   (   2A1  +   0B1  +   0B2  +   0A2  )
 NUMBER OF VALENCE ORBITALS:        8   (   4A1  +   2B1  +   2B2  +   0A2  )


 NUCLEAR REPULSION ENERGY   15.87531627

 EXTRA SYMMETRY OF AOS IN SYMMETRY 1:   1 1 1 1 1 1 2 1 1 1   1 1 1 2

 Eigenvalues of metric

         1 0.189E-01 0.440E-01 0.147E+00 0.152E+00 0.365E+00 0.955E+00 0.975E+00 0.100E+01
         2 0.155E+00 0.196E+00 0.780E+00 0.110E+01 0.141E+01 0.236E+01
         3 0.155E+00 0.196E+00 0.780E+00 0.110E+01 0.141E+01 0.236E+01
         4 0.975E+00 0.103E+01


 Contracted 2-electron integrals neglected if value below      1.0D-11
 AO integral compression algorithm  1   Integral accuracy      1.0D-11

     0.262 MB (compressed) written to integral file (100.0%)


 NUMBER OF SORTED TWO-ELECTRON INTEGRALS:      24933.     BUFFER LENGTH:  32768
 NUMBER OF SEGMENTS:   1  SEGMENT LENGTH:      24933      RECORD LENGTH: 524288

 Memory used in sort:       0.58 MW

 SORT1 READ       32016. AND WROTE       21069. INTEGRALS IN      1 RECORDS. CPU TIME:     0.00 SEC, REAL TIME:     0.08 SEC
 SORT2 READ       21069. AND WROTE       24933. INTEGRALS IN      1 RECORDS. CPU TIME:     0.01 SEC, REAL TIME:     0.02 SEC

 FILE SIZES:   FILE 1:     7.8 MBYTE,  FILE 4:     4.2 MBYTE,   TOTAL:     12.0 MBYTE

 OPERATOR DM      FOR CENTER  0  COORDINATES:    0.000000    0.000000    0.000000


 **********************************************************************************************************************************
 DATASETS  * FILE   NREC   LENGTH (MB)   RECORD NAMES
              1      19        7.65       500      610      700      900      950      970     1000      129      960     1100   
                                          VAR    BASINP    GEOM    SYMINP    ZMAT    AOBASIS   BASIS     P2S    ABASIS      S 
                                         1400     1410     1200     1210     1080     1600     1650     1300     1700   
                                           T        V       H0       H01     AOSYM     SMH    MOLCAS    ERIS     OPER   

 PROGRAMS   *        TOTAL       INT
 CPU TIMES  *         0.31      0.09
 REAL TIME  *         1.25 SEC
 DISK USED  *        12.29 MB      
 **********************************************************************************************************************************

1PROGRAM * RHF-SCF (CLOSED SHELL)       Authors: W. Meyer, H.-J. Werner


 NUMBER OF ELECTRONS:       7+    7-
 CONVERGENCE THRESHOLDS:    1.00E-06 (Density)    1.00E-07 (Energy)
 MAX. NUMBER OF ITERATIONS:       60
 INTERPOLATION TYPE:            DIIS
 INTERPOLATION STEPS:              2 (START)      1 (STEP)
 LEVEL SHIFTS:                  0.00 (CLOSED)  0.00 (OPEN) 



 Orbital guess generated from atomic densities. Full valence occupancy:    6   2   2   0

 Molecular orbital dump at record        2100.2

 Initial alpha occupancy:   5   1   1   0
 Initial beta  occupancy:   5   1   1   0
 Wave function symmetry:    1

 ITERATION    DDIFF          GRAD             ENERGY        2-EL.EN.            DIPOLE MOMENTS         DIIS   ORB.
    1      0.000D+00      0.000D+00      -112.32934645    115.883086    0.00000    0.00000   -2.63916    0    start
    2      0.000D+00      0.523D-01      -111.80250808    108.508147    0.00000    0.00000    3.02179    1    diag
    3      0.202D+00      0.121D+00      -112.49319505    113.657431    0.00000    0.00000   -0.94184    2    diag
    4      0.121D+00      0.313D-02      -112.49468567    113.763861    0.00000    0.00000   -0.98552    3    diag
    5      0.898D-02      0.163D-02      -112.49534036    113.811690    0.00000    0.00000   -0.99915    4    diag
    6      0.533D-02      0.122D-02      -112.49582401    113.816960    0.00000    0.00000   -0.99107    5    diag
    7      0.706D-02      0.376D-03      -112.49587964    113.830037    0.00000    0.00000   -0.98679    6    diag
    8      0.302D-02      0.774D-04      -112.49588064    113.831750    0.00000    0.00000   -0.98790    7    diag
    9      0.371D-03      0.113D-04      -112.49588065    113.832587    0.00000    0.00000   -0.98806    8    diag
   10      0.501D-04      0.296D-05      -112.49588065    113.832464    0.00000    0.00000   -0.98801    9    orth
   11      0.911D-05      0.187D-06      -112.49588065    113.832477    0.00000    0.00000   -0.98802    9    diag
   12      0.695D-06      0.337D-07      -112.49588065    113.832473    0.00000    0.00000   -0.98802    0    orth

 Final occupancy:   5   1   1   0

 !RHF STATE 1.1 Energy               -112.495880652894
 Nuclear energy                        15.87531627
 One-electron energy                 -185.28743347
 Two-electron energy                   56.91623655
 Virial quotient                       -1.00887616
 !RHF STATE 1.1 Dipole moment           0.00000000     0.00000000    -0.98801584
 Dipole moment /Debye                   0.00000000     0.00000000    -2.51112130

 ELECTRON ORBITALS
 =================


   Orb  Occ    Energy  Couls-En    Coefficients

                                   1 1s      1 1s      1 1s      1 2pz     1 2pz     1 3d0     1 3d2+    2 1s      2 1s      2 1s   
                                   2 2pz     2 2pz     2 3d0     2 3d2+ 

   1.1   2   -20.6446  -54.5528 -0.000090 -0.000249  0.001678  0.000500  0.000956  0.000267  0.000000  1.000232  0.000601 -0.001935
                                -0.001670  0.002213 -0.000252 -0.000000

   2.1   2   -11.5148  -32.0960  0.999681 -0.002239  0.001950  0.002195 -0.001376  0.000689  0.000000  0.000068  0.000541 -0.000406
                                -0.000391  0.000758 -0.000375  0.000000

   3.1   2    -1.2732  -10.1539 -0.001747  0.278808 -0.065881  0.150766 -0.044294  0.023573  0.000000 -0.004335  0.896927 -0.012726
                                -0.072167  0.003314  0.008054 -0.000000

   4.1   2    -0.7978   -7.6580  0.023170  1.005008 -0.145081 -0.038058 -0.025687  0.009647  0.000000 -0.003422 -0.356852 -0.045524
                                -0.307282  0.011294  0.013835  0.000000

   5.1   2    -0.5205   -7.5834  0.002173  0.264547  0.103175 -0.708778  0.109858 -0.037816  0.000000  0.000701  0.141375  0.065714
                                 0.608922  0.022889 -0.017840  0.000000

                                   1 2px     1 2px     1 3d1+    2 2px     2 2px     2 3d1+ 

   1.2   2    -0.4883   -8.1635  0.316579  0.028262  0.038521  0.831268  0.053675 -0.018378

                                   1 2py     1 2py     1 3d1-    2 2py     2 2py     2 3d1- 

   1.3   2    -0.4883   -8.1635  0.316579  0.028262  0.038521  0.831268  0.053675 -0.018378

 HOMO      1.2    -0.488304 =     -13.2874eV
 LUMO      2.2     0.009712 =       0.2643eV
 LUMO-HOMO         0.498016 =      13.5517eV


 **********************************************************************************************************************************
 DATASETS  * FILE   NREC   LENGTH (MB)   RECORD NAMES
              1      19        7.65       500      610      700      900      950      970     1000      129      960     1100   
                                          VAR    BASINP    GEOM    SYMINP    ZMAT    AOBASIS   BASIS     P2S    ABASIS      S 
                                         1400     1410     1200     1210     1080     1600     1650     1300     1700   
                                           T        V       H0       H01     AOSYM     SMH    MOLCAS    ERIS     OPER   

              2       4        0.30       700     1000      520     2100   
                                         GEOM     BASIS   MCVARS     RHF  

 PROGRAMS   *        TOTAL        HF       INT
 CPU TIMES  *         0.34      0.03      0.09
 REAL TIME  *         1.48 SEC
 DISK USED  *        12.29 MB      
 **********************************************************************************************************************************


1PROGRAM * CCSD (Closed-shell coupled cluster)     Authors: C. Hampel, H.-J. Werner, 1991, M. Deegan, P.J. Knowles, 1992


 Convergence thresholds:  THRVAR = 1.00D-12  THRDEN = 1.00D-08

 CCSD(T)     terms to be evaluated (factor= 1.000)


 Number of core orbitals:           2 (   2   0   0   0 )
 Number of closed-shell orbitals:   5 (   3   1   1   0 )
 Number of external orbitals:      21 (   9   5   5   2 )

 Molecular orbitals read from record     2100.2  Type=RHF/CANONICAL (state 1.1)

 Number of N-1 electron functions:               5
 Number of N-2 electron functions:              15
 Number of singly external CSFs:                37
 Number of doubly external CSFs:              1541
 Total number of CSFs:                        1579

 Length of J-op  integral file:               0.00 MB
 Length of K-op  integral file:               0.05 MB
 Length of 3-ext integral record:             0.00 MB

 Memory could be reduced to 0.31 Mwords without degradation in triples

 Integral transformation finished. Total CPU:   0.01 sec, npass=  1  Memory used:   0.08 MW

 Reference energy:                   -112.49588065

 MP2 singlet pair energy:              -0.21584399
 MP2 triplet pair energy:              -0.15169118
 MP2 correlation energy:               -0.36753518
 MP2 total energy:                   -112.86341583

 SCS-MP2 correlation energy:           -0.35339842   (PS=  1.200000  PT=  0.333333)
 SCS-MP2 total energy:               -112.84927907

 ITER.      SQ.NORM     CORR.ENERGY   TOTAL ENERGY   ENERGY CHANGE        DEN1      VAR(S)    VAR(P)  DIIS     TIME
   1      1.16476101    -0.37888742  -112.87476807    -0.01135224     0.06044668  0.53D-01  0.20D-01  1  1     0.02
   2      1.18613236    -0.35614889  -112.85202954     0.02273853    -0.03318856  0.35D-02  0.18D-02  2  2     0.03
   3      1.22954489    -0.35997129  -112.85585194    -0.00382240    -0.00733926  0.25D-02  0.32D-03  3  3     0.04
   4      1.26446097    -0.35794192  -112.85382258     0.00202937    -0.00532041  0.44D-03  0.10D-03  4  4     0.05
   5      1.29500202    -0.35711538  -112.85299603     0.00082654    -0.00350620  0.15D-04  0.13D-04  5  5     0.05
   6      1.30188984    -0.35681431  -112.85269496     0.00030107    -0.00010769  0.18D-05  0.19D-05  6  6     0.06
   7      1.30320209    -0.35668983  -112.85257048     0.00012448    -0.00018990  0.14D-06  0.35D-06  6  2     0.06
   8      1.30327063    -0.35671287  -112.85259353    -0.00002305     0.00003884  0.13D-07  0.35D-07  6  1     0.06
   9      1.30331559    -0.35669937  -112.85258002     0.00001351     0.00001334  0.32D-08  0.42D-08  6  3     0.06
  10      1.30339135    -0.35669052  -112.85257117     0.00000884    -0.00000974  0.38D-09  0.64D-09  6  4     0.07
  11      1.30337253    -0.35669393  -112.85257458    -0.00000341     0.00000504  0.51D-10  0.62D-10  6  2     0.07
  12      1.30337497    -0.35669361  -112.85257426     0.00000032    -0.00000011  0.39D-11  0.52D-11  6  5     0.08
  13      1.30337595    -0.35669363  -112.85257428    -0.00000002    -0.00000022  0.96D-12  0.73D-12  6  6     0.08
  14      1.30337699    -0.35669349  -112.85257414     0.00000014    -0.00000010  0.25D-13  0.11D-12  6  1     0.09
  15      1.30337709    -0.35669347  -112.85257412     0.00000001    -0.00000005  0.25D-13  0.17D-13  6  4     0.09
  16      1.30337704    -0.35669350  -112.85257415    -0.00000002     0.00000003  0.10D-14  0.19D-14  6  3     0.09
  17      1.30337702    -0.35669350  -112.85257415    -0.00000000     0.00000000  0.16D-15  0.28D-15  6  2     0.10
  18      1.30337701    -0.35669350  -112.85257415    -0.00000000    -0.00000000  0.48D-16  0.34D-16  6  6     0.10

 Norm of t1 vector:      0.35225339      S-energy:     0.00000006      T1 diagnostic:  0.07876625
                                                                       D1 diagnostic:  0.16671027

 Singles amplitudes (print threshold =  0.500E-01):

         I         SYM. A    A   T(IA)

         3         1         1      0.06862611
         4         2         1      0.16228231
         5         3         1      0.16228231

 Doubles amplitudes (print threshold =  0.500E-01):

         I         J         SYM. A    SYM. B    A         B      T(IJ, AB)

         2         2         2         2         1         1     -0.06324381
         2         2         3         3         1         1     -0.06324381
         3         3         1         1         1         1     -0.07478243
         4         4         2         2         1         1     -0.12817275
         5         5         3         3         1         1     -0.12817275
         4         3         2         1         1         1      0.06123978
         5         3         3         1         1         1      0.06123978
         5         4         3         2         1         1     -0.08021532


 Total CPU time for triples:      0.01 sec


 RESULTS
 =======

  Reference energy                   -112.495880652894
  CCSD singlet pair energy             -0.242218249059
  CCSD triplet pair energy             -0.114475305668
  CCSD correlation energy              -0.356693496629

  Triples (T) contribution             -0.033263986754
  Total correlation energy             -0.389957483383

  CCSD total energy                  -112.852574149523
  CCSD[T] energy                     -112.908416427925
  CCSD-T energy                      -112.881439213316
 !CCSD(T) total energy               -112.885838136277

 Timing summary (sec):

 STEP                 CPU(USER)    SYS     CPU(TOT)    WALL
 Transformation          0.01      0.01      0.02      0.04
 CCSD iterations         0.10      0.01      0.11      0.28
 Triples                 0.01      0.00      0.01      0.01

 Program statistics:

 Available memory in ccsd:                 7999800
 Min. memory needed in ccsd:                  8992
 Max. memory used in ccsd:                    9570
 Max. memory used in cckext:                 43837 (18 integral passes)



 **********************************************************************************************************************************
 DATASETS  * FILE   NREC   LENGTH (MB)   RECORD NAMES
              1      20        7.76       500      610      700      900      950      970     1000      129      960     1100   
                                          VAR    BASINP    GEOM    SYMINP    ZMAT    AOBASIS   BASIS     P2S    ABASIS      S 
                                         1400     1410     1200     1210     1080     1600     1650     1300     1700     1380   
                                           T        V       H0       H01     AOSYM     SMH    MOLCAS    ERIS     OPER     JKOP   

              2       4        0.30       700     1000      520     2100   
                                         GEOM     BASIS   MCVARS     RHF  

 PROGRAMS   *        TOTAL   CCSD(T)        HF       INT
 CPU TIMES  *         0.49      0.15      0.03      0.09
 REAL TIME  *         1.98 SEC
 DISK USED  *        12.29 MB      
 **********************************************************************************************************************************


 PROGRAM * OPT (Geometry optimization)     Authors: F. Eckert and H.-J. Werner


 BFGS update of hessian

 *** Long output written to logfile /home/jcartus/Repos/TMSoCM/TaskB/taskB.log ***


 Geometry optimization using default procedure for command CCSD(T)

 Geometry written to block  1 of record 700

 Making model hessian for Z-matrix coordinates

 Quadratic Steepest Descent - Minimum Search

 ITER.   ENERGY(OLD)    ENERGY(NEW)      DE          GRADMAX     GRADNORM    GRADRMS     STEPMAX     STEPLEN     STEPRMS   CPU-time
   1  -112.88583814  -112.99300304    -0.10716491  0.22194357  0.22194357  0.22194357  0.45000044  0.45000044  0.45000044      0.62
   2  -112.99300304  -113.05400060    -0.06099756  0.23283798  0.23283798  0.23283798  0.45000006  0.45000006  0.45000006      1.23
   3  -113.05400060  -113.05401905    -0.00001845  0.05076365  0.05076365  0.05076365  0.08054836  0.08054836  0.08054836      1.79
   4  -113.05401905  -113.05497027    -0.00095122  0.04532571  0.04532571  0.04532571  0.03799496  0.03799496  0.03799496      2.35
   5  -113.05497027  -113.05497596    -0.00000569  0.00360189  0.00360189  0.00360189  0.00327999  0.00327999  0.00327999      2.93
   6  -113.05497596  -113.05497598    -0.00000002  0.00028918  0.00028918  0.00028918  0.00024377  0.00024377  0.00024377      3.49

 END OF GEOMETRY OPTIMIZATION.

 Optimized variables
 R=                   1.14465184 ANGSTROM

 **********************************************************************************************************************************

 Current geometry (xyz format, in Angstrom)

    2
 CCSD(T)/CC-PVDZ  ENERGY=-113.05497598
 C          0.0000000000        0.0000000000       -0.6538193905
 O          0.0000000000        0.0000000000        0.4908324499

 **********************************************************************************************************************************

 Geometry written to block  1 of record 700


 **********************************************************************************************************************************
 DATASETS  * FILE   NREC   LENGTH (MB)   RECORD NAMES
              1      20        7.77       500      610      700      900      950      970     1000      129      960     1100   
                                          VAR    BASINP    GEOM    SYMINP    ZMAT    AOBASIS   BASIS     P2S    ABASIS      S 
                                         1400     1410     1200     1210     1080     1600     1650     1300     1700     1380   
                                           T        V       H0       H01     AOSYM     SMH    MOLCAS    ERIS     OPER     JKOP   

              2       5        0.31       700     1000      520     2100     5600   
                                         GEOM     BASIS   MCVARS     RHF     GINFO   

 PROGRAMS   *        TOTAL      OPTG   CCSD(T)        HF       INT
 CPU TIMES  *         3.98      3.49      0.15      0.03      0.09
 REAL TIME  *         7.03 SEC
 DISK USED  *        12.37 MB      
 **********************************************************************************************************************************


 PROGRAM * HESSIAN

 Computing numerical hessian using default procedure for command CCSD(T)

 Symmetry elements for unique displacements: X  Y  

 Using AUTO symmetry option

 Running default procedure: HF-SCF000  CCSD(T)
 

 Numerically approximating hessian using central energy differences

 Task list generated. Total number of displacements:     12

    5 tasks completed, CPU=1s Elapsed=1s
   10 tasks completed, CPU=3s Elapsed=3s

 Numerical CCSD(T) hessian completed. CPU-time:     3.71 sec, Elapsed:     4.01 sec

 CCSD(T) hessian saved to record  5300.2

 FREQUENCIES * CALCULATION OF HARMONIC VIBRATIONAL SPECTRA FOR CCSD(T)


 Permanent Dipole Moment [debye]
   1-  3    0.000000    0.000000    0.000000

 Dipole Moment Norm    0.0000000 [debye]

 Dipole Moment Derivatives [debye/ang]
                   1             2             3             4             5             6
         1     0.0000000     0.0000000     0.0000000     0.0000000     0.0000000     0.0000000
         2     0.0000000     0.0000000     0.0000000     0.0000000     0.0000000     0.0000000
         3     0.0000000     0.0000000     0.0000000     0.0000000     0.0000000     0.0000000

 Projecting out rotations and translations

   Low Vibration      Wavenumber
        Nr             [1/cm] 
        1                0.00
        2                0.00
        3                0.00
        4                0.00
        5                0.00

     Vibration        Wavenumber
        Nr             [1/cm] 
        1             2143.06

 FREQUENCIES * CALCULATION OF NORMAL MODES FOR CCSD(T)


 Atomic Coordinates

  Nr  Atom  Charge       X              Y              Z

   1   C     6.00    0.000000000    0.000000000   -1.235539588
   2   O     8.00    0.000000000    0.000000000    0.927538907

 Frequencies dumped to record   5400.2

 Gradient norm at reference geometry: 0.23072D-05

 Normal Modes

                              1 A1 
 Wavenumbers [cm-1]         2143.06
 Intensities [km/mol]          0.00
 Intensities [relative]        0.00
           CX1              0.00000
           CY1              0.00000
           CZ1              0.21807
           OX2              0.00000
           OY2              0.00000
           OZ2             -0.16371


 Normal Modes of low/zero frequencies

                                  1           2           3           4           5
 Wavenumbers [cm-1]            0.00        0.00        0.00        0.00        0.00
 Intensities [km/mol]          0.00        0.00        0.00        0.00        0.00
 Intensities [relative]        0.00        0.00        0.00        0.00        0.00
           CX1              0.00000     0.00000     0.09544     0.00000     0.27230
           CY1              0.00000     0.20283     0.00000     0.20522     0.00000
           CZ1              0.18895     0.00000     0.00000     0.00000     0.00000
           OX2              0.00000     0.00000     0.23593     0.00000    -0.08269
           OY2              0.00000     0.17781     0.00000    -0.17574     0.00000
           OZ2              0.18895     0.00000     0.00000     0.00000     0.00000


 Zero point energy:  0.00488224 [H]     1071.53 [1/CM]       12.82 [KJ/MOL]
 Frequency information read from record  5400.2

   OPTG(CCSD(T))        CCSD(T)         HF-SCF  
   -113.05497598   -112.88583814   -112.49588065
 **********************************************************************************************************************************
 Variable memory released
