
 Primary working directories    : /tmp/jcartus
 Secondary working directories  : /tmp/jcartus
 Wavefunction directory         : /home/jcartus/wfu/
 Main file repository           : /tmp/jcartus/

 SHA1      : 960ce83de8be0427555cf121dea4debc26c720b5
 NAME      : 2012.1.960ce83
 ARCHNAME  : Linux/x86_64
 FC        : /opt/intel/composer_xe_2013_sp1.2.144/bin/intel64/ifort
 FCVERSION : 14.0.2
 BLASLIB   : -Wl,-_start-group /opt/intel/mkl/lib/intel64/libmkl_intel_ilp64.a /opt/intel/mkl/lib/intel64/libmkl_sequential.a /opt/intel/mkl/lib/intel64/libmkl_core.a -Wl,-_end-group
 id        : tugraziep

 Nodes     nprocs
 qciep        1

 Using customized tuning parameters: mindgm=7; mindgv=24; mindgc=1; mindgr=1; noblas=0; minvec=7
 default implementation of scratch files=df  

 gprint,orbital
 
                                                                                 !Geometry and Variables
 angstrom
 geometry={
 C
 O   C  r
 }
 r = 1.6
 
 basis=aug-cc-pVQZ
 
                                                                                 !method: CCSD(T)
                                                                    !httpss://www.molpro.net/info/2015.1/doc/quickstart/node15.html
 hf
 ccsd(t)
 optg
 
                                                                                 !get virbational frew of CO in groud state
                                                                                 !(analytical calculation not possible anymore)
                                                                     !https://www.molpro.net/info/2015.1/doc/quickstart/node28.html
 frequencies,symm=auto
 

 Variables initialized (778), CPU time= 0.01 sec
 Commands  initialized (547), CPU time= 0.01 sec, 516 directives.
 Default parameters read. Elapsed time= 0.06 sec

 Checking input...
 Passed
1


                                         ***  PROGRAM SYSTEM MOLPRO  ***
                         Copyright, University College Cardiff Consultants Limited, 2008

                                    Version 2012.1 linked Apr  1 2014 15:33:03


 **********************************************************************************************************************************
 LABEL *                                                                                 
 Linux-3.2.0-4-amd64/qciep(x86_64) 64 bit serial version                                 DATE: 22-Jan-19          TIME: 22:10:52  
 **********************************************************************************************************************************

 SHA1:             960ce83de8be0427555cf121dea4debc26c720b5
 **********************************************************************************************************************************

 ZUNIT=ANG
 
 SETTING R              =         1.60000000                                  

 Variable memory set to    8000000 words,  buffer space   230000 words

 SETTING BASIS          =    AUG-CC-PVQZ


 Recomputing integrals since basis changed


 Using spherical harmonics

 Library entry C      S aug-cc-pVQZ          selected for orbital group  1
 Library entry C      P aug-cc-pVQZ          selected for orbital group  1
 Library entry C      D aug-cc-pVQZ          selected for orbital group  1
 Library entry C      F aug-cc-pVQZ          selected for orbital group  1
 Library entry C      G aug-cc-pVQZ          selected for orbital group  1
 Library entry O      S aug-cc-pVQZ          selected for orbital group  2
 Library entry O      P aug-cc-pVQZ          selected for orbital group  2
 Library entry O      D aug-cc-pVQZ          selected for orbital group  2
 Library entry O      F aug-cc-pVQZ          selected for orbital group  2
 Library entry O      G aug-cc-pVQZ          selected for orbital group  2

1PROGRAM * SEWARD (Integral evaluation for generally contracted gaussian basis sets)     Author: Roland Lindh, 1990

 Geometry written to block  1 of record 700

 Orientation using atomic masses  
 Molecule type: Linear
 Symmetry elements: X,Y
 Rotational constants:      28.7748897     28.7748897      0.0000000 GHz  (calculated with average atomic masses)

 Point group  C2v 



 ATOMIC COORDINATES

 NR  ATOM    CHARGE       X              Y              Z

   1  C       6.00    0.000000000    0.000000000   -1.727043342
   2  O       8.00    0.000000000    0.000000000    1.296518468

 Bond lengths in Bohr (Angstrom)

 1-2  3.023561810
     ( 1.600000000)

 NUCLEAR CHARGE:                   14
 NUMBER OF PRIMITIVE AOS:         236
 NUMBER OF SYMMETRY AOS:          186
 NUMBER OF CONTRACTIONS:          160   (  62A1  +  38B1  +  38B2  +  22A2  )
 NUMBER OF CORE ORBITALS:           2   (   2A1  +   0B1  +   0B2  +   0A2  )
 NUMBER OF VALENCE ORBITALS:        8   (   4A1  +   2B1  +   2B2  +   0A2  )


 NUCLEAR REPULSION ENERGY   15.87531627

 EXTRA SYMMETRY OF AOS IN SYMMETRY 1:   1 1 1 1 1 1 1 1 1 1   1 1 2 1 2 1 2 1 2 1   2 1 2 1 2 1 3 2 1 3   2 1 1 1 1 1 1 1 1 1
                                        1 1 1 2 1 2 1 2 1 2   1 2 1 2 1 2 1 3 2 1   3 2
 EXTRA SYMMETRY OF AOS IN SYMMETRY 2:   1 1 1 1 1 1 1 1 1 1   2 1 2 1 2 1 2 1 2 1   1 1 1 1 1 1 1 1 1 2   1 2 1 2 1 2 1 2
 EXTRA SYMMETRY OF AOS IN SYMMETRY 3:   1 1 1 1 1 1 1 1 1 1   2 1 2 1 2 1 2 1 2 1   1 1 1 1 1 1 1 1 1 2   1 2 1 2 1 2 1 2
 EXTRA SYMMETRY OF AOS IN SYMMETRY 4:   1 1 1 1 1 1 1 1 2 1   2 1 1 1 1 1 1 1 1 2   1 2

 Eigenvalues of metric

         1 0.242E-03 0.487E-03 0.592E-03 0.188E-02 0.355E-02 0.719E-02 0.901E-02 0.115E-01
         2 0.237E-02 0.872E-02 0.111E-01 0.190E-01 0.482E-01 0.562E-01 0.957E-01 0.115E+00
         3 0.237E-02 0.872E-02 0.111E-01 0.190E-01 0.482E-01 0.562E-01 0.957E-01 0.115E+00
         4 0.477E-01 0.100E+00 0.147E+00 0.186E+00 0.273E+00 0.352E+00 0.387E+00 0.387E+00


 Contracted 2-electron integrals neglected if value below      1.0D-11
 AO integral compression algorithm  1   Integral accuracy      1.0D-11

     91.488 MB (compressed) written to integral file ( 42.7%)


 NUMBER OF SORTED TWO-ELECTRON INTEGRALS:   21336328.     BUFFER LENGTH:  32768
 NUMBER OF SEGMENTS:   3  SEGMENT LENGTH:    7248501      RECORD LENGTH: 524288

 Memory used in sort:       7.81 MW

 SORT1 READ    26829300. AND WROTE    15245432. INTEGRALS IN     45 RECORDS. CPU TIME:     0.84 SEC, REAL TIME:     1.08 SEC
 SORT2 READ    15245432. AND WROTE    21336328. INTEGRALS IN    349 RECORDS. CPU TIME:     0.62 SEC, REAL TIME:     0.78 SEC

 FILE SIZES:   FILE 1:    99.6 MBYTE,  FILE 4:   188.8 MBYTE,   TOTAL:    288.4 MBYTE

 OPERATOR DM      FOR CENTER  0  COORDINATES:    0.000000    0.000000    0.000000


 **********************************************************************************************************************************
 DATASETS  * FILE   NREC   LENGTH (MB)   RECORD NAMES
              1      19       77.99       500      610      700      900      950      970     1000      129      960     1100   
                                          VAR    BASINP    GEOM    SYMINP    ZMAT    AOBASIS   BASIS     P2S    ABASIS      S 
                                         1400     1410     1200     1210     1080     1600     1650     1300     1700   
                                           T        V       H0       H01     AOSYM     SMH    MOLCAS    ERIS     OPER   

 PROGRAMS   *        TOTAL       INT
 CPU TIMES  *         7.79      7.66
 REAL TIME  *         8.38 SEC
 DISK USED  *       288.70 MB      
 **********************************************************************************************************************************

1PROGRAM * RHF-SCF (CLOSED SHELL)       Authors: W. Meyer, H.-J. Werner


 NUMBER OF ELECTRONS:       7+    7-
 CONVERGENCE THRESHOLDS:    1.00E-06 (Density)    1.00E-07 (Energy)
 MAX. NUMBER OF ITERATIONS:       60
 INTERPOLATION TYPE:            DIIS
 INTERPOLATION STEPS:              2 (START)      1 (STEP)
 LEVEL SHIFTS:                  0.00 (CLOSED)  0.00 (OPEN) 



 Orbital guess generated from atomic densities. Full valence occupancy:    6   2   2   0

 Molecular orbital dump at record        2100.2

 Initial alpha occupancy:   5   1   1   0
 Initial beta  occupancy:   5   1   1   0
 Wave function symmetry:    1

 ITERATION    DDIFF          GRAD             ENERGY        2-EL.EN.            DIPOLE MOMENTS         DIIS   ORB.
    1      0.000D+00      0.000D+00      -112.36292452    115.526533    0.00000    0.00000   -2.65778    0    start
    2      0.000D+00      0.210D-01      -111.85337264    108.367575    0.00000    0.00000    2.83281    1    diag
    3      0.343D-01      0.478D-01      -112.53099153    113.571813    0.00000    0.00000   -0.99479    2    diag
    4      0.228D-01      0.143D-02      -112.53284325    113.630797    0.00000    0.00000   -1.05567    3    diag
    5      0.158D-02      0.715D-03      -112.53352375    113.702896    0.00000    0.00000   -1.07621    4    diag
    6      0.101D-02      0.519D-03      -112.53398970    113.701664    0.00000    0.00000   -1.07411    5    diag
    7      0.111D-02      0.249D-03      -112.53414208    113.713236    0.00000    0.00000   -1.06550    6    diag
    8      0.903D-03      0.650D-04      -112.53414928    113.716465    0.00000    0.00000   -1.06597    7    diag
    9      0.202D-03      0.101D-04      -112.53414936    113.717878    0.00000    0.00000   -1.06623    8    diag
   10      0.163D-04      0.265D-05      -112.53414936    113.717668    0.00000    0.00000   -1.06613    9    orth
   11      0.343D-05      0.196D-06      -112.53414936    113.717666    0.00000    0.00000   -1.06614    9    diag
   12      0.333D-06      0.448D-07      -112.53414936    113.717654    0.00000    0.00000   -1.06614    0    orth

 Final occupancy:   5   1   1   0

 !RHF STATE 1.1 Energy               -112.534149362594
 Nuclear energy                        15.87531627
 One-electron energy                 -185.26829279
 Two-electron energy                   56.85882716
 Virial quotient                       -1.00854459
 !RHF STATE 1.1 Dipole moment           0.00000000     0.00000000    -1.06613952
 Dipole moment /Debye                   0.00000000     0.00000000    -2.70967889

 ELECTRON ORBITALS
 =================


   Orb  Occ    Energy  Couls-En    Coefficients

                                   1 1s      1 1s      1 1s      1 1s      1 1s      1 1s      1 2pz     1 2pz     1 2pz     1 2pz  
                                   1 2pz     1 3d0     1 3d2+    1 3d0     1 3d2+    1 3d0     1 3d2+    1 3d0     1 3d2+    1 4f0  
                                   1 4f2+    1 4f0     1 4f2+    1 4f0     1 4f2+    1 5g0     1 5g4+    1 5g2+    1 5g0     1 5g4+ 
                                   1 5g2+    2 1s      2 1s      2 1s      2 1s      2 1s      2 1s      2 2pz     2 2pz     2 2pz  
                                   2 2pz     2 2pz     2 3d0     2 3d2+    2 3d0     2 3d2+    2 3d0     2 3d2+    2 3d0     2 3d2+ 
                                   2 4f0     2 4f2+    2 4f0     2 4f2+    2 4f0     2 4f2+    2 5g0     2 5g4+    2 5g2+    2 5g0  
                                   2 5g4+    2 5g2+ 

   1.1   2   -20.6453  -54.5546  0.000085  0.000331  0.000214 -0.001486 -0.002296 -0.000225  0.000157  0.000020 -0.001265 -0.001009
                                 0.000026  0.000032  0.000000 -0.000154 -0.000000 -0.000301 -0.000000 -0.000118 -0.000000 -0.000019
                                 0.000000  0.000003 -0.000000  0.000052 -0.000000 -0.000032 -0.000000  0.000000  0.000087 -0.000000
                                -0.000000  1.000802  0.001947 -0.000616 -0.002433  0.002523  0.001134 -0.006996  0.003040  0.002803
                                -0.000324 -0.000297  0.000057  0.000000 -0.000287  0.000000  0.000538  0.000000  0.000596  0.000000
                                -0.000000 -0.000000 -0.000040 -0.000000 -0.000262 -0.000000 -0.000003 -0.000000  0.000000  0.000052
                                -0.000000  0.000000

   2.1   2   -11.5224  -32.1050  1.001139  0.001391 -0.002352 -0.000799  0.003738  0.000670  0.012292 -0.005684 -0.003554 -0.000649
                                 0.000229 -0.000226 -0.000000  0.000625  0.000000  0.001530 -0.000000  0.000583  0.000000 -0.000035
                                 0.000000  0.000472 -0.000000  0.000439  0.000000  0.000055 -0.000000 -0.000000  0.000194 -0.000000
                                 0.000000  0.000062  0.000577  0.000168 -0.000798 -0.003474 -0.002326 -0.000280 -0.000209  0.001062
                                 0.001195  0.000316  0.000057  0.000000 -0.000134 -0.000000 -0.000255 -0.000000  0.000195 -0.000000
                                 0.000011  0.000000  0.000078 -0.000000 -0.000206  0.000000 -0.000056  0.000000 -0.000000  0.000152
                                -0.000000  0.000000

   3.1   2    -1.2770  -10.1599 -0.002308  0.273703  0.003893 -0.039455 -0.055390 -0.000072  0.145710  0.000223 -0.020789 -0.028120
                                 0.000216  0.003481  0.000000  0.010520 -0.000000  0.014193  0.000000  0.001296 -0.000000  0.000897
                                 0.000000  0.003528 -0.000000  0.004102 -0.000000  0.000423 -0.000000 -0.000000  0.001101 -0.000000
                                -0.000000 -0.001894  0.905108  0.000193 -0.022766 -0.002925  0.012387 -0.059805 -0.000272 -0.006674
                                -0.012462 -0.001865  0.000353  0.000000  0.003616 -0.000000  0.012792  0.000000  0.007349 -0.000000
                                -0.000131  0.000000 -0.003212  0.000000 -0.004919 -0.000000  0.000086  0.000000 -0.000000  0.001771
                                -0.000000  0.000000

   4.1   2    -0.8051   -7.6745  0.002234  0.938915  0.019987 -0.022731 -0.078789 -0.002600 -0.060465  0.003765 -0.006535  0.002500
                                 0.000330  0.001553  0.000000 -0.000134 -0.000000  0.007337  0.000000  0.002190 -0.000000  0.000490
                                -0.000000  0.001551  0.000000  0.002946 -0.000000  0.000433 -0.000000 -0.000000  0.000533 -0.000000
                                -0.000000 -0.002217 -0.351535 -0.005206 -0.007752 -0.042885 -0.005073 -0.311261  0.003030  0.000796
                                 0.007842 -0.002396  0.001456 -0.000000  0.006649  0.000000  0.014859  0.000000  0.007850 -0.000000
                                -0.000449  0.000000 -0.003430  0.000000 -0.003613 -0.000000  0.000163  0.000000  0.000000  0.001505
                                 0.000000 -0.000000

   5.1   2    -0.5305   -7.5908  0.002680  0.277116  0.005844  0.040114  0.068093  0.007232 -0.705903  0.004869  0.036892  0.064482
                                -0.000821 -0.004830  0.000000 -0.016971 -0.000000 -0.020098  0.000000 -0.003514 -0.000000  0.000006
                                -0.000000 -0.000399  0.000000 -0.003589 -0.000000 -0.000953  0.000000 -0.000000 -0.000490  0.000000
                                 0.000000  0.001996  0.140795  0.005583  0.012201  0.046161  0.020271  0.611213 -0.003483  0.004166
                                 0.024715  0.012734 -0.002034 -0.000000 -0.009515  0.000000 -0.023596 -0.000000 -0.016591 -0.000000
                                 0.000725 -0.000000  0.005449 -0.000000  0.007443  0.000000 -0.000029 -0.000000  0.000000 -0.002662
                                -0.000000 -0.000000

                                   1 2px     1 2px     1 2px     1 2px     1 2px     1 3d1+    1 3d1+    1 3d1+    1 3d1+    1 4f1+ 
                                   1 4f3+    1 4f1+    1 4f3+    1 4f1+    1 4f3+    1 5g1+    1 5g3+    1 5g1+    1 5g3+    2 2px  
                                   2 2px     2 2px     2 2px     2 2px     2 3d1+    2 3d1+    2 3d1+    2 3d1+    2 4f1+    2 4f3+ 
                                   2 4f1+    2 4f3+    2 4f1+    2 4f3+    2 5g1+    2 5g3+    2 5g1+    2 5g3+ 

   1.2   2    -0.4975   -8.1623  0.311521 -0.001417  0.001328 -0.013423 -0.000606  0.003231  0.017536  0.023812  0.003098  0.000985
                                -0.000000  0.005818 -0.000000  0.003047 -0.000000  0.000778 -0.000000  0.001130 -0.000000  0.841293
                                -0.005154  0.004095  0.043929  0.026090 -0.001664 -0.007275 -0.018980 -0.012690  0.000625 -0.000000
                                 0.004552 -0.000000  0.004542 -0.000000 -0.000232  0.000000 -0.001685  0.000000

                                   1 2py     1 2py     1 2py     1 2py     1 2py     1 3d1-    1 3d1-    1 3d1-    1 3d1-    1 4f1- 
                                   1 4f3-    1 4f1-    1 4f3-    1 4f1-    1 4f3-    1 5g1-    1 5g3-    1 5g1-    1 5g3-    2 2py  
                                   2 2py     2 2py     2 2py     2 2py     2 3d1-    2 3d1-    2 3d1-    2 3d1-    2 4f1-    2 4f3- 
                                   2 4f1-    2 4f3-    2 4f1-    2 4f3-    2 5g1-    2 5g3-    2 5g1-    2 5g3- 

   1.3   2    -0.4975   -8.1623  0.311521 -0.001417  0.001328 -0.013423 -0.000606  0.003231  0.017536  0.023812  0.003098  0.000985
                                 0.000000  0.005818  0.000000  0.003047  0.000000  0.000778  0.000000  0.001130  0.000000  0.841293
                                -0.005154  0.004095  0.043929  0.026090 -0.001664 -0.007275 -0.018980 -0.012690  0.000625  0.000000
                                 0.004552  0.000000  0.004542  0.000000 -0.000232 -0.000000 -0.001685 -0.000000

 HOMO      1.2    -0.497460 =     -13.5366eV
 LUMO      2.2    -0.006773 =      -0.1843eV
 LUMO-HOMO         0.490687 =      13.3523eV


 **********************************************************************************************************************************
 DATASETS  * FILE   NREC   LENGTH (MB)   RECORD NAMES
              1      19       77.99       500      610      700      900      950      970     1000      129      960     1100   
                                          VAR    BASINP    GEOM    SYMINP    ZMAT    AOBASIS   BASIS     P2S    ABASIS      S 
                                         1400     1410     1200     1210     1080     1600     1650     1300     1700   
                                           T        V       H0       H01     AOSYM     SMH    MOLCAS    ERIS     OPER   

              2       4        0.46       700     1000      520     2100   
                                         GEOM     BASIS   MCVARS     RHF  

 PROGRAMS   *        TOTAL        HF       INT
 CPU TIMES  *         9.36      1.56      7.66
 REAL TIME  *        10.13 SEC
 DISK USED  *       288.70 MB      
 **********************************************************************************************************************************


1PROGRAM * CCSD (Closed-shell coupled cluster)     Authors: C. Hampel, H.-J. Werner, 1991, M. Deegan, P.J. Knowles, 1992


 Convergence thresholds:  THRVAR = 1.00D-12  THRDEN = 1.00D-08

 CCSD(T)     terms to be evaluated (factor= 1.000)


 Number of core orbitals:           2 (   2   0   0   0 )
 Number of closed-shell orbitals:   5 (   3   1   1   0 )
 Number of external orbitals:     153 (  57  37  37  22 )

 Molecular orbitals read from record     2100.2  Type=RHF/CANONICAL (state 1.1)

 Number of N-1 electron functions:               5
 Number of N-2 electron functions:              15
 Number of singly external CSFs:               245
 Number of doubly external CSFs:             76295
 Total number of CSFs:                       76541

 Length of J-op  integral file:               0.00 MB
 Length of K-op  integral file:               0.54 MB
 Length of 3-ext integral record:             0.00 MB

 Memory could be reduced to 7.40 Mwords without degradation in triples

 Integral transformation finished. Total CPU:   0.76 sec, npass=  1  Memory used:   0.94 MW

 Reference energy:                   -112.53414936

 MP2 singlet pair energy:              -0.28326477
 MP2 triplet pair energy:              -0.17673788
 MP2 correlation energy:               -0.46000265
 MP2 total energy:                   -112.99415201

 SCS-MP2 correlation energy:           -0.44988796   (PS=  1.200000  PT=  0.333333)
 SCS-MP2 total energy:               -112.98403732

 ITER.      SQ.NORM     CORR.ENERGY   TOTAL ENERGY   ENERGY CHANGE        DEN1      VAR(S)    VAR(P)  DIIS     TIME
   1      1.16598584    -0.45868616  -112.99283552     0.00131649     0.07159141  0.44D-01  0.22D-01  1  1     1.62
   2      1.18656672    -0.43571303  -112.96986239     0.02297313    -0.03455254  0.22D-02  0.18D-02  2  2     2.56
   3      1.21591797    -0.43891832  -112.97306768    -0.00320529    -0.00468295  0.24D-02  0.32D-03  3  3     3.47
   4      1.24725393    -0.43774387  -112.97189323     0.00117445    -0.00505718  0.54D-03  0.78D-04  4  4     4.40
   5      1.27509739    -0.43722014  -112.97136950     0.00052373    -0.00319270  0.47D-04  0.22D-04  5  5     5.33
   6      1.28586529    -0.43677402  -112.97092338     0.00044613    -0.00047564  0.49D-05  0.31D-05  6  6     6.25
   7      1.28887188    -0.43658002  -112.97072938     0.00019400    -0.00027665  0.19D-06  0.63D-06  6  2     7.18
   8      1.28887307    -0.43660142  -112.97075078    -0.00002140     0.00006469  0.26D-07  0.61D-07  6  1     8.11
   9      1.28898597    -0.43659067  -112.97074003     0.00001076     0.00000775  0.58D-08  0.86D-08  6  3     9.04
  10      1.28907353    -0.43657872  -112.97072808     0.00001194    -0.00001133  0.54D-09  0.16D-08  6  4     9.98
  11      1.28903561    -0.43658226  -112.97073162    -0.00000354     0.00000820  0.17D-09  0.15D-09  6  2    10.91
  12      1.28904771    -0.43658172  -112.97073108     0.00000054    -0.00000171  0.74D-11  0.16D-10  6  5    11.84
  13      1.28905020    -0.43658165  -112.97073102     0.00000007    -0.00000007  0.17D-11  0.19D-11  6  6    12.74
  14      1.28905141    -0.43658147  -112.97073083     0.00000019    -0.00000026  0.39D-12  0.26D-12  6  1    13.67
  15      1.28905073    -0.43658153  -112.97073090    -0.00000007     0.00000005  0.55D-13  0.25D-13  6  3    14.60
  16      1.28905038    -0.43658155  -112.97073091    -0.00000002     0.00000005  0.27D-14  0.52D-14  6  4    15.53
  17      1.28905036    -0.43658155  -112.97073091     0.00000000    -0.00000001  0.72D-15  0.96D-15  6  2    16.46
  18      1.28905033    -0.43658155  -112.97073091    -0.00000000     0.00000000  0.86D-16  0.20D-15  6  5    17.36

 Norm of t1 vector:      0.32359837      S-energy:     0.00000014      T1 diagnostic:  0.07235879
                                                                       D1 diagnostic:  0.15261096

 Singles amplitudes (print threshold =  0.500E-01):

         I         SYM. A    A   T(IA)

         4         2         1      0.14008688
         5         3         1      0.14008688

 Doubles amplitudes (print threshold =  0.500E-01):

         I         J         SYM. A    SYM. B    A         B      T(IJ, AB)

         2         2         2         2         1         1     -0.05337919
         2         2         3         3         1         1     -0.05337919
         4         4         2         2         1         1     -0.10033112
         5         5         3         3         1         1     -0.10033112
         5         4         3         2         1         1     -0.06390792


 Total CPU time for triples:      4.09 sec


 RESULTS
 =======

  Reference energy                   -112.534149362594
  CCSD singlet pair energy             -0.299770149304
  CCSD triplet pair energy             -0.136811540078
  CCSD correlation energy              -0.436581549524

  Triples (T) contribution             -0.042064000584
  Total correlation energy             -0.478645550109

  CCSD total energy                  -112.970730912118
  CCSD[T] energy                     -113.031309263684
  CCSD-T energy                      -113.009438000917
 !CCSD(T) total energy               -113.012794912703

 Timing summary (sec):

 STEP                 CPU(USER)    SYS     CPU(TOT)    WALL
 Transformation          0.77      0.07      0.84      0.84
 CCSD iterations        16.59      0.64     17.23     17.25
 Triples                 4.09      0.10      4.19      4.18

 Program statistics:

 Available memory in ccsd:                 7999800
 Min. memory needed in ccsd:                309467
 Max. memory used in ccsd:                  367041
 Max. memory used in cckext:                455257 (18 integral passes)



 **********************************************************************************************************************************
 DATASETS  * FILE   NREC   LENGTH (MB)   RECORD NAMES
              1      20       97.86       500      610      700      900      950      970     1000      129      960     1100   
                                          VAR    BASINP    GEOM    SYMINP    ZMAT    AOBASIS   BASIS     P2S    ABASIS      S 
                                         1400     1410     1200     1210     1080     1600     1650     1300     1700     1380   
                                           T        V       H0       H01     AOSYM     SMH    MOLCAS    ERIS     OPER     JKOP   

              2       4        0.46       700     1000      520     2100   
                                         GEOM     BASIS   MCVARS     RHF  

 PROGRAMS   *        TOTAL   CCSD(T)        HF       INT
 CPU TIMES  *        30.84     21.48      1.56      7.66
 REAL TIME  *        32.44 SEC
 DISK USED  *       288.70 MB      
 **********************************************************************************************************************************


 PROGRAM * OPT (Geometry optimization)     Authors: F. Eckert and H.-J. Werner


 BFGS update of hessian

 *** Long output written to logfile /home/jcartus/Repos/TMSoCM/TaskB/taskB.log ***


 Geometry optimization using default procedure for command CCSD(T)

 Geometry written to block  1 of record 700

 Making model hessian for Z-matrix coordinates

 Quadratic Steepest Descent - Minimum Search

 ITER.   ENERGY(OLD)    ENERGY(NEW)      DE          GRADMAX     GRADNORM    GRADRMS     STEPMAX     STEPLEN     STEPRMS   CPU-time
   1  -113.01279491  -113.12189499    -0.10910008  0.22725910  0.22725910  0.22725910  0.45000073  0.45000073  0.45000073     90.41
   2  -113.12189499  -113.19022778    -0.06833278  0.23913515  0.23913515  0.23913515  0.45000003  0.45000003  0.45000003    175.00
   3  -113.19022778  -113.19017942     0.00004835  0.01906340  0.01906340  0.01906340  0.03322454  0.03322454  0.03322454    255.61
   4  -113.19017942  -113.19037078    -0.00019136  0.02098405  0.02098405  0.02098405  0.01740899  0.01740899  0.01740899    336.48
   5  -113.19037078  -113.19037099    -0.00000020  0.00062766  0.00062766  0.00062766  0.00053678  0.00053678  0.00053678    416.07
   6  -113.19037099  -113.19037099    -0.00000000  0.00002157  0.00002157  0.00002157  0.00001784  0.00001784  0.00001784    497.83

 END OF GEOMETRY OPTIMIZATION.

 Optimized variables
 R=                   1.13183473 ANGSTROM

 **********************************************************************************************************************************

 Current geometry (xyz format, in Angstrom)

    2
 CCSD(T)/AUG-CC-PVQZ  ENERGY=-113.19037099
 C          0.0000000000        0.0000000000       -0.6464983224
 O          0.0000000000        0.0000000000        0.4853364095

 **********************************************************************************************************************************

 Geometry written to block  1 of record 700


 **********************************************************************************************************************************
 DATASETS  * FILE   NREC   LENGTH (MB)   RECORD NAMES
              1      20      119.82       500      610      700      900      950      970     1000      129      960     1100   
                                          VAR    BASINP    GEOM    SYMINP    ZMAT    AOBASIS   BASIS     P2S    ABASIS      S 
                                         1400     1410     1200     1210     1080     1600     1650     1300     1700     1380   
                                           T        V       H0       H01     AOSYM     SMH    MOLCAS    ERIS     OPER     JKOP   

              2       5        0.62       700     1000      520     2100     5600   
                                         GEOM     BASIS   MCVARS     RHF     GINFO   

 PROGRAMS   *        TOTAL      OPTG   CCSD(T)        HF       INT
 CPU TIMES  *       528.67    497.82     21.48      1.56      7.66
 REAL TIME  *       557.72 SEC
 DISK USED  *       315.80 MB      
 **********************************************************************************************************************************


 PROGRAM * HESSIAN

 Computing numerical hessian using default procedure for command CCSD(T)

 Symmetry elements for unique displacements: X  Y  

 Using AUTO symmetry option

 Running default procedure: HF-SCF000  CCSD(T)
 

 Numerically approximating hessian using central energy differences

 Task list generated. Total number of displacements:     12

    5 tasks completed, CPU=3m 40s Elapsed=3m 41s
   10 tasks completed, CPU=7m 19s Elapsed=7m 20s

 Numerical CCSD(T) hessian completed. CPU-time:   498.08 sec, Elapsed:   499.21 sec

 CCSD(T) hessian saved to record  5300.2

 FREQUENCIES * CALCULATION OF HARMONIC VIBRATIONAL SPECTRA FOR CCSD(T)


 Permanent Dipole Moment [debye]
   1-  3    0.000000    0.000000    0.000000

 Dipole Moment Norm    0.0000000 [debye]

 Dipole Moment Derivatives [debye/ang]
                   1             2             3             4             5             6
         1     0.0000000     0.0000000     0.0000000     0.0000000     0.0000000     0.0000000
         2     0.0000000     0.0000000     0.0000000     0.0000000     0.0000000     0.0000000
         3     0.0000000     0.0000000     0.0000000     0.0000000     0.0000000     0.0000000

 Projecting out rotations and translations

   Low Vibration      Wavenumber
        Nr             [1/cm] 
        1                0.00
        2                0.00
        3                0.00
        4                0.00
        5                0.00

     Vibration        Wavenumber
        Nr             [1/cm] 
        1             2159.35

 FREQUENCIES * CALCULATION OF NORMAL MODES FOR CCSD(T)


 Atomic Coordinates

  Nr  Atom  Charge       X              Y              Z

   1   C     6.00    0.000000000    0.000000000   -1.221704774
   2   O     8.00    0.000000000    0.000000000    0.917152896

 Frequencies dumped to record   5400.2

 Gradient norm at reference geometry: 0.23854D-07

 Normal Modes

                              1 A1 
 Wavenumbers [cm-1]         2159.35
 Intensities [km/mol]          0.00
 Intensities [relative]        0.00
           CX1              0.00000
           CY1              0.00000
           CZ1              0.21807
           OX2              0.00000
           OY2              0.00000
           OZ2             -0.16371


 Normal Modes of low/zero frequencies

                                  1           2           3           4           5
 Wavenumbers [cm-1]            0.00        0.00        0.00        0.00        0.00
 Intensities [km/mol]          0.00        0.00        0.00        0.00        0.00
 Intensities [relative]        0.00        0.00        0.00        0.00        0.00
           CX1             -0.00000     0.24199     0.00000     0.15716     0.00000
           CY1              0.20403    -0.00000     0.20403    -0.00000     0.00000
           CZ1              0.00000     0.00000     0.00000     0.00000     0.18895
           OX2             -0.00000    -0.13617    -0.00000     0.20967     0.00000
           OY2             -0.17678    -0.00000     0.17678    -0.00000     0.00000
           OZ2              0.00000     0.00000     0.00000     0.00000     0.18895


 Zero point energy:  0.00491936 [H]     1079.67 [1/CM]       12.92 [KJ/MOL]
 Frequency information read from record  5400.2

   OPTG(CCSD(T))        CCSD(T)         HF-SCF  
   -113.19037099   -113.01279491   -112.53414936
 **********************************************************************************************************************************
 Variable memory released
